# Dielectric tensor + Born effective charge tensor for all atoms
    2.085698597074    -0.000000000000     0.000000000000    -0.000000000000     2.085698597074     0.000000000000    -0.000000000000    -0.000000000000     2.085698597074
    1.045766882173     0.000000000000     0.000000000000     0.000000000000     1.045766882173     0.000000000000     0.000000000000     0.000000000000     1.045766882173
   -1.045766882173     0.000000000000     0.000000000000     0.000000000000    -1.045766882173     0.000000000000     0.000000000000     0.000000000000    -1.045766882173